ITEM: TIMESTEP
0
ITEM: NUMBER OF ATOMS
8
ITEM: BOX BOUNDS ss ss ss
-1.1597682672000000e+00 1.1597676461999999e+00
-9.7351401589999997e-01 9.7351449690000003e-01
-1.0138882563000000e+00 1.0138896013000001e+00
ITEM: ATOMS id mol type q x y z ix iy iz fx fy fz
1 1 1 -0.0677578 -0.759341 0.0107048 -0.0162273 0 0 0 -25.1556 0.354574 -0.537657
2 1 1 -0.0677578 0.759341 -0.0107048 0.0162271 0 0 0 25.154 -0.354831 0.537494
3 1 2 0.0225859 -1.15944 -0.1005 1.01359 0 0 0 4.14211 1.34854 -12.4138
4 1 2 0.0225859 -1.11319 0.97322 -0.442038 0 0 0 3.5854 -11.5799 5.11266
5 1 2 0.0225859 -1.13422 -0.824692 -0.644353 0 0 0 3.83887 10.0685 7.54864
6 1 2 0.0225859 1.13422 0.824687 0.644356 0 0 0 -3.83818 -10.067 -7.54806
7 1 2 0.0225859 1.15944 0.100504 -1.01359 0 0 0 -4.14153 -1.34844 12.4129
8 1 2 0.0225859 1.11319 -0.973219 0.442033 0 0 0 -3.58507 11.5786 -5.11219
ITEM: TIMESTEP
5000
ITEM: NUMBER OF ATOMS
8
ITEM: BOX BOUNDS ss ss ss
-1.1313032542894876e+00 1.1109820158237682e+00
-9.5842787708171273e-01 8.8206613052600125e-01
-9.9830833516903394e-01 1.0210489923056436e+00
ITEM: ATOMS id mol type q x y z ix iy iz fx fy fz
1 1 1 -0.0677578 -0.773187 0.00794191 -0.0129624 0 0 0 56.0534 -4.75621 46.2393
2 1 1 -0.0677578 0.76926 -0.00436854 0.00608497 0 0 0 -29.8882 -10.7428 35.4099
3 1 2 0.0225859 -1.13097 -0.0600271 1.02075 0 0 0 -6.98985 -3.11043 -5.48652
4 1 2 0.0225859 -1.06969 0.881771 -0.44871 0 0 0 -23.1133 41.3252 -19.8895
5 1 2 0.0225859 -1.03947 -0.794279 -0.587756 0 0 0 -28.2163 -37.8037 -22.5232
6 1 2 0.0225859 1.08715 0.815707 0.662051 0 0 0 9.65356 0.49242 -10.8086
7 1 2 0.0225859 1.08912 0.0723806 -0.998006 0 0 0 20.592 9.54238 -19.9573
8 1 2 0.0225859 1.11065 -0.958133 0.433624 0 0 0 1.90869 5.05309 -2.98399
ITEM: TIMESTEP
10000
ITEM: NUMBER OF ATOMS
8
ITEM: BOX BOUNDS ss ss ss
-1.1298174293545766e+00 1.2029211268817885e+00
-9.6462287508814137e-01 1.0175878574796795e+00
-9.9864786830935270e-01 9.1528138816602100e-01
ITEM: ATOMS id mol type q x y z ix iy iz fx fy fz
1 1 1 -0.0677578 -0.783925 -0.00194837 -0.0120453 0 0 0 55.9933 19.3371 -50.0559
2 1 1 -0.0677578 0.778699 -0.00476659 0.0246904 0 0 0 -17.3162 1.94197 35.196
3 1 2 0.0225859 -1.12949 -0.247194 0.914979 0 0 0 -25.3292 -22.1074 40.3354
4 1 2 0.0225859 -1.08452 1.01729 -0.224945 0 0 0 -8.28688 2.79093 -4.4952
5 1 2 0.0225859 -1.09003 -0.673847 -0.849182 0 0 0 -10.5418 4.09483 21.7404
6 1 2 0.0225859 1.20259 0.970578 0.460684 0 0 0 -13.6194 -39.4528 -4.83534
7 1 2 0.0225859 1.03246 -0.022486 -0.998345 0 0 0 22.5779 -3.73286 -22.5803
8 1 2 0.0225859 1.13126 -0.964328 0.546125 0 0 0 -3.47769 37.1281 -15.305
ITEM: TIMESTEP
15000
ITEM: NUMBER OF ATOMS
8
ITEM: BOX BOUNDS ss ss ss
-1.2096202298648007e+00 1.1930075741439445e+00
-9.3674558928551022e-01 9.9687118728333091e-01
-1.0048943415275582e+00 9.6261401072709440e-01
ITEM: ATOMS id mol type q x y z ix iy iz fx fy fz
1 1 1 -0.0677578 -0.768909 0.0055504 -0.001784 0 0 0 -21.6537 -27.0986 -53.1706
2 1 1 -0.0677578 0.778974 -0.000624192 0.0132095 0 0 0 -25.7659 -13.7472 -29.6167
3 1 2 0.0225859 -1.18438 -0.2692 0.962311 0 0 0 0.894229 2.84114 6.33851
4 1 2 0.0225859 -1.12359 0.996577 -0.307497 0 0 0 1.35605 -0.258196 8.01688
5 1 2 0.0225859 -1.20929 -0.71853 -0.793998 0 0 0 26.2223 24.3414 33.8832
6 1 2 0.0225859 1.06793 0.801928 0.642683 0 0 0 19.7478 14.3746 10.1554
7 1 2 0.0225859 1.19268 0.0669755 -1.00459 0 0 0 -5.4846 14.2047 5.99075
8 1 2 0.0225859 1.13672 -0.936451 0.364942 0 0 0 4.68385 -14.6578 18.4026
ITEM: TIMESTEP
20000
ITEM: NUMBER OF ATOMS
8
ITEM: BOX BOUNDS ss ss ss
-1.1686851581840338e+00 1.1354401606582389e+00
-8.8306813984507526e-01 9.5140566005204674e-01
-1.0400487241126135e+00 1.0177366803125383e+00
ITEM: ATOMS id mol type q x y z ix iy iz fx fy fz
1 1 1 -0.0677578 -0.768063 0.00193209 -0.0068779 0 0 0 0.520337 -18.6319 -11.061
2 1 1 -0.0677578 0.766144 -0.00371262 0.0212734 0 0 0 -3.49772 -34.8774 -47.8142
3 1 2 0.0225859 -1.16835 0.000788683 1.01743 0 0 0 -0.0134775 -2.91197 -6.17831
4 1 2 0.0225859 -1.03766 0.930433 -0.493704 0 0 0 -13.0843 2.41201 -4.41846
5 1 2 0.0225859 -1.1476 -0.882773 -0.611735 0 0 0 7.15192 23.9991 20.0959
6 1 2 0.0225859 1.11452 0.951111 0.283794 0 0 0 14.4568 21.5773 22.8836
7 1 2 0.0225859 1.13511 -0.158578 -1.03975 0 0 0 -8.07576 -3.05455 29.081
8 1 2 0.0225859 1.12686 -0.819763 0.672417 0 0 0 2.54218 11.4874 -2.58847
ITEM: TIMESTEP
25000
ITEM: NUMBER OF ATOMS
8
ITEM: BOX BOUNDS ss ss ss
-1.2069290408673836e+00 1.2125217928987650e+00
-9.9904404622025489e-01 1.0238758250833910e+00
-1.0169057530325587e+00 9.5132425201002824e-01
ITEM: ATOMS id mol type q x y z ix iy iz fx fy fz
1 1 1 -0.0677578 -0.758768 0.00735641 0.00690677 0 0 0 -39.9535 2.98736 -14.3837
2 1 1 -0.0677578 0.753476 -0.00385963 -0.00128969 0 0 0 65.7322 -10.8903 -9.46544
3 1 2 0.0225859 -1.2066 -0.332145 0.951022 0 0 0 11.3446 8.62799 2.25772
4 1 2 0.0225859 -1.14173 1.02358 -0.260922 0 0 0 6.82577 -16.5417 7.06688
5 1 2 0.0225859 -1.13379 -0.703192 -0.73574 0 0 0 4.92142 3.93986 -3.3041
6 1 2 0.0225859 1.14625 0.757726 0.693761 0 0 0 -6.7102 -5.79374 -3.22867
7 1 2 0.0225859 1.21219 0.211111 -1.0166 0 0 0 -23.482 -1.64705 23.0416
8 1 2 0.0225859 1.18673 -0.998749 0.301545 0 0 0 -18.6784 19.3176 -1.98432
ITEM: TIMESTEP
30000
ITEM: NUMBER OF ATOMS
8
ITEM: BOX BOUNDS ss ss ss
-1.2614122008747304e+00 1.1604514353541040e+00
-9.1981678018877666e-01 9.5433531254663984e-01
-1.0292252034834886e+00 9.7798878669899847e-01
ITEM: ATOMS id mol type q x y z ix iy iz fx fy fz
1 1 1 -0.0677578 -0.765479 0.00677658 0.0112097 0 0 0 -12.2309 27.6167 3.60654
2 1 1 -0.0677578 0.763884 -0.00460949 -0.0171764 0 0 0 8.52484 -3.42559 17.3087
3 1 2 0.0225859 -1.26108 0.831382 0.588471 0 0 0 24.489 -11.0769 -5.37698
4 1 2 0.0225859 -1.08924 0.152024 -1.02892 0 0 0 -6.70618 -16.2353 5.13937
5 1 2 0.0225859 -1.06493 -0.919522 0.481957 0 0 0 -12.6174 -10.1501 -10.3373
6 1 2 0.0225859 1.12386 -0.877488 -0.579245 0 0 0 -0.31495 12.4767 -10.3863
7 1 2 0.0225859 1.16012 -0.166258 0.977686 0 0 0 -3.29132 5.12134 8.81899
8 1 2 0.0225859 1.15028 0.954041 -0.368851 0 0 0 2.14683 -4.32676 -8.77299
ITEM: TIMESTEP
35000
ITEM: NUMBER OF ATOMS
8
ITEM: BOX BOUNDS ss ss ss
-1.1784990234272379e+00 1.1480713331708394e+00
-1.0225973884285684e+00 5.9776107581190008e-01
-9.6762880745066138e-01 9.3426943986626398e-01
ITEM: ATOMS id mol type q x y z ix iy iz fx fy fz
1 1 1 -0.0677578 -0.783536 0.00978887 0.0365347 0 0 0 35.2318 -14.6422 -51.3687
2 1 1 -0.0677578 0.788256 -0.000729198 -0.038256 0 0 0 -77.293 -30.8405 51.4869
3 1 2 0.0225859 -1.17817 0.465396 0.933967 0 0 0 -3.32295 7.32081 4.30942
4 1 2 0.0225859 -1.04331 0.543576 -0.898042 0 0 0 -17.7861 3.78 19.0039
5 1 2 0.0225859 -1.16849 -1.0223 -0.0792009 0 0 0 0.778467 10.2732 5.98242
6 1 2 0.0225859 1.14774 0.281956 -0.967326 0 0 0 23.1545 4.93752 -34.6122
7 1 2 0.0225859 1.06671 -0.974048 0.299154 0 0 0 17.5936 -19.0103 -13.8287
8 1 2 0.0225859 1.11928 0.597466 0.731956 0 0 0 21.6437 38.1815 19.0269
ITEM: TIMESTEP
40000
ITEM: NUMBER OF ATOMS
8
ITEM: BOX BOUNDS ss ss ss
-1.2665778901397813e+00 1.1888046216268255e+00
-8.6196760176769160e-01 8.8673249328703152e-01
-9.8737491416331202e-01 9.9678779183715738e-01
ITEM: ATOMS id mol type q x y z ix iy iz fx fy fz
1 1 1 -0.0677578 -0.753741 -0.00452501 0.01273 0 0 0 -24.7127 16.2457 5.31503
2 1 1 -0.0677578 0.768387 0.01463 -0.00944513 0 0 0 -16.8876 -32.2852 19.4738
3 1 2 0.0225859 -1.26625 0.804535 0.505519 0 0 0 17.8703 18.4936 9.53338
4 1 2 0.0225859 -1.07979 0.0779761 -0.987072 0 0 0 -11.5882 -9.34439 -24.9476
5 1 2 0.0225859 -1.17562 -0.861673 0.507378 0 0 0 5.35977 -20.0026 -5.10466
6 1 2 0.0225859 1.07223 -0.79049 -0.634397 0 0 0 8.75224 -15.2331 -10.597
7 1 2 0.0225859 1.08644 -0.237198 0.996485 0 0 0 13.4233 13.2438 4.36747
8 1 2 0.0225859 1.18847 0.886438 -0.427058 0 0 0 7.78285 28.8823 1.95962
ITEM: TIMESTEP
45000
ITEM: NUMBER OF ATOMS
8
ITEM: BOX BOUNDS ss ss ss
-1.1979597259039556e+00 1.1706723043894136e+00
-8.9492972637785650e-01 9.9389383452573654e-01
-1.0375591300247489e+00 8.6661212144345889e-01
ITEM: ATOMS id mol type q x y z ix iy iz fx fy fz
1 1 1 -0.0677578 -0.779655 -0.0122708 -0.0030894 0 0 0 35.0764 17.5173 -11.7408
2 1 1 -0.0677578 0.788963 0.00900527 0.00556192 0 0 0 -41.446 0.106868 -13.0875
3 1 2 0.0225859 -1.13009 0.993599 -0.0901885 0 0 0 -5.89743 16.3468 11.9581
4 1 2 0.0225859 -1.19763 -0.456257 -0.862772 0 0 0 0.172201 -24.8756 -19.3449
5 1 2 0.0225859 -1.15402 -0.493531 0.866309 0 0 0 -10.6202 -4.7148 18.6706
6 1 2 0.0225859 1.11661 -0.894635 0.463057 0 0 0 10.8514 -14.978 7.1424
7 1 2 0.0225859 1.08388 0.856331 0.631385 0 0 0 11.7171 0.393819 -8.22022
8 1 2 0.0225859 1.17034 0.0334053 -1.03726 0 0 0 0.146541 10.2037 14.6223
ITEM: TIMESTEP
50000
ITEM: NUMBER OF ATOMS
8
ITEM: BOX BOUNDS ss ss ss
-1.1955496289027459e+00 1.2780863934125721e+00
-1.0831728854659062e+00 1.0821073778477905e+00
-7.9961760314451380e-01 9.7440271745146212e-01
ITEM: ATOMS id mol type q x y z ix iy iz fx fy fz
1 1 1 -0.0677578 -0.804726 -0.0289955 -0.0308203 0 0 0 53.6735 10.4047 37.8808
2 1 1 -0.0677578 0.790705 0.0166368 0.00174273 0 0 0 -14.4134 -22.6184 28.9597
3 1 2 0.0225859 -1.14525 0.763625 -0.735241 0 0 0 -8.72691 -29.5817 -4.74993
4 1 2 0.0225859 -1.19522 -1.08288 -0.113696 0 0 0 2.55974 27.2776 -13.1778
5 1 2 0.0225859 -1.06608 0.361223 0.9741 0 0 0 -7.83309 -10.4411 -11.2766
6 1 2 0.0225859 1.26064 -0.375779 0.947226 0 0 0 -26.2372 0.370514 -16.0546
7 1 2 0.0225859 1.03523 1.08181 0.073415 0 0 0 14.063 -3.45513 -23.2691
8 1 2 0.0225859 1.27775 -0.600736 -0.799315 0 0 0 -13.0855 28.0436 1.6875
ITEM: TIMESTEP
55000
ITEM: NUMBER OF ATOMS
8
ITEM: BOX BOUNDS ss ss ss
-1.2685198949759682e+00 1.2914573155441444e+00
-9.7542497365385239e-01 1.1039545874377243e+00
-9.3261452160700786e-01 8.8818094278144677e-01
ITEM: ATOMS id mol type q x y z ix iy iz fx fy fz
1 1 1 -0.0677578 -0.760565 -0.0281143 0.00205216 0 0 0 -32.1543 19.0101 5.72598
2 1 1 -0.0677578 0.774678 0.0209889 0.00340585 0 0 0 12.0858 19.4661 -17.7567
3 1 2 0.0225859 -1.11164 0.437818 -0.932312 0 0 0 -1.58931 -3.71818 6.30185
4 1 2 0.0225859 -1.22573 -0.97513 0.111456 0 0 0 13.9611 -32.2328 -13.4784
5 1 2 0.0225859 -1.26819 0.445732 0.831355 0 0 0 18.5583 23.2142 6.47355
6 1 2 0.0225859 1.29113 -0.348475 0.887878 0 0 0 -13.1975 -15.3336 2.8735
7 1 2 0.0225859 1.10672 1.10366 -0.0487994 0 0 0 -9.56172 -28.6881 -12.6036
8 1 2 0.0225859 1.03954 -0.578697 -0.914619 0 0 0 11.8976 18.2822 22.4638
ITEM: TIMESTEP
60000
ITEM: NUMBER OF ATOMS
8
ITEM: BOX BOUNDS ss ss ss
-1.1763252438904321e+00 1.2190567410529067e+00
-9.4859193282235854e-01 9.3382124925508092e-01
-8.7870838059798118e-01 1.0364805287620151e+00
ITEM: ATOMS id mol type q x y z ix iy iz fx fy fz
1 1 1 -0.0677578 -0.775515 -0.0562637 0.00125188 0 0 0 6.17823 68.0671 -6.265
2 1 1 -0.0677578 0.76476 0.0485214 0.000619083 0 0 0 25.628 -23.3554 3.03116
3 1 2 0.0225859 -1.17599 -0.867377 -0.571657 0 0 0 -0.213873 -13.7924 -7.13697
4 1 2 0.0225859 -1.10642 -0.0861726 1.03618 0 0 0 -7.12223 -7.82933 1.00485
5 1 2 0.0225859 -1.12787 0.933527 -0.44648 0 0 0 2.52798 -33.6302 13.8142
6 1 2 0.0225859 1.21872 -0.948297 -0.112152 0 0 0 -10.151 1.59772 12.3297
7 1 2 0.0225859 1.14813 0.507317 0.950221 0 0 0 -7.03017 -4.03294 -20.1168
8 1 2 0.0225859 1.17159 0.553262 -0.878406 0 0 0 -9.81698 12.9755 3.33889
ITEM: TIMESTEP
65000
ITEM: NUMBER OF ATOMS
8
ITEM: BOX BOUNDS ss ss ss
-1.2096332715225180e+00 1.1966374203378329e+00
-8.8479994979424481e-01 9.7966250406571775e-01
-1.0573311337672644e+00 1.0636510107607249e+00
ITEM: ATOMS id mol type q x y z ix iy iz fx fy fz
1 1 1 -0.0677578 -0.771201 -0.0384745 0.00288381 0 0 0 -2.49738 28.0088 -42.4235
2 1 1 -0.0677578 0.77466 0.028313 0.00457548 0 0 0 -18.0625 21.2771 19.3162
3 1 2 0.0225859 -1.14619 -0.192883 -1.05703 0 0 0 10.3209 10.583 27.186
4 1 2 0.0225859 -1.0812 -0.884505 0.541264 0 0 0 -9.8994 -19.3594 21.1372
5 1 2 0.0225859 -1.2093 0.908487 0.432574 0 0 0 7.9049 -23.5544 -7.46984
6 1 2 0.0225859 1.19631 -0.690596 -0.675492 0 0 0 7.55044 -18.8839 7.02582
7 1 2 0.0225859 1.13458 0.00121589 1.06335 0 0 0 2.15727 -11.9542 -21.0238
8 1 2 0.0225859 1.06459 0.979368 -0.393554 0 0 0 2.52573 13.883 -3.74812
ITEM: TIMESTEP
70000
ITEM: NUMBER OF ATOMS
8
ITEM: BOX BOUNDS ss ss ss
-1.2295478191150278e+00 1.1934679375502242e+00
-9.5985955389204347e-01 8.2937781581833458e-01
-1.0439142836266855e+00 1.0010514908255381e+00
ITEM: ATOMS id mol type q x y z ix iy iz fx fy fz
1 1 1 -0.0677578 -0.759585 -0.046527 0.0141983 0 0 0 -15.8043 29.4466 24.4197
2 1 1 -0.0677578 0.768334 0.0489359 -0.015942 0 0 0 -13.5119 -51.1803 -2.15123
3 1 2 0.0225859 -1.18592 0.818317 -0.48488 0 0 0 0.0212565 -2.81538 -14.453
4 1 2 0.0225859 -1.07947 -0.959565 -0.407379 0 0 0 -8.40344 -17.938 -19.2101
5 1 2 0.0225859 -1.22922 0.00838065 1.00075 0 0 0 18.2438 -4.6345 6.71027
6 1 2 0.0225859 1.06223 0.143882 -1.04361 0 0 0 10.8839 1.01255 -10.6772
7 1 2 0.0225859 1.19314 -0.868802 0.42081 0 0 0 -1.99029 4.15774 -6.94309
8 1 2 0.0225859 1.13499 0.829083 0.535088 0 0 0 10.561 41.9513 22.3046
ITEM: TIMESTEP
75000
ITEM: NUMBER OF ATOMS
8
ITEM: BOX BOUNDS ss ss ss
-1.2919548286058118e+00 1.2358798578793053e+00
-9.3079240079234005e-01 9.5029356695308509e-01
-6.1043391317016593e-01 1.0482602205049087e+00
ITEM: ATOMS id mol type q x y z ix iy iz fx fy fz
1 1 1 -0.0677578 -0.751581 -0.0555686 0.020878 0 0 0 -72.4412 31.7209 3.31123
2 1 1 -0.0677578 0.773526 0.0475148 -0.0061664 0 0 0 9.76428 3.37404 -84.1437
3 1 2 0.0225859 -1.22024 0.0370383 1.04796 0 0 0 23.3135 -10.1573 -19.2697
4 1 2 0.0225859 -1.29162 0.750324 -0.539663 0 0 0 29.1221 -5.00637 5.55408
5 1 2 0.0225859 -1.14712 -0.930498 -0.467209 0 0 0 10.4713 -18.2683 2.1759
6 1 2 0.0225859 1.11907 0.949999 -0.610131 0 0 0 -15.2174 -16.4353 30.7674
7 1 2 0.0225859 1.23555 -0.808768 -0.608182 0 0 0 -15.676 16.0081 35.5355
8 1 2 0.0225859 1.04286 0.0978738 1.00192 0 0 0 30.6635 -1.23585 26.0694
ITEM: TIMESTEP
80000
ITEM: NUMBER OF ATOMS
8
ITEM: BOX BOUNDS ss ss ss
-1.2730326412099722e+00 1.1735611299208613e+00
-1.0150142633436592e+00 8.8316856301150926e-01
-1.0224668537024348e+00 1.0092808603505938e+00
ITEM: ATOMS id mol type q x y z ix iy iz fx fy fz
1 1 1 -0.0677578 -0.758902 -0.0449051 0.0125258 0 0 0 -31.9045 3.34551 -5.15748
2 1 1 -0.0677578 0.776508 0.0407998 -0.0148015 0 0 0 -9.48797 10.8346 -13.9832
3 1 2 0.0225859 -1.15558 0.134322 1.00898 0 0 0 7.06765 -3.08417 7.07362
4 1 2 0.0225859 -1.2727 0.692182 -0.613389 0 0 0 15.019 3.01283 -4.12922
5 1 2 0.0225859 -1.13914 -1.01472 -0.301493 0 0 0 8.45421 -5.3439 -2.74381
6 1 2 0.0225859 1.02848 0.882874 0.638767 0 0 0 11.2768 -10.0512 4.64538
7 1 2 0.0225859 1.17323 0.289669 -1.02216 0 0 0 -9.37422 -9.19749 9.43931
8 1 2 0.0225859 1.15593 -0.935408 0.316416 0 0 0 8.94904 10.4839 4.85544
ITEM: TIMESTEP
85000
ITEM: NUMBER OF ATOMS
8
ITEM: BOX BOUNDS ss ss ss
-1.2916507256223311e+00 1.2626562905753504e+00
-9.6161427720573411e-01 1.0073922723942874e+00
-9.8290416277400161e-01 9.7179043430676293e-01
ITEM: ATOMS id mol type q x y z ix iy iz fx fy fz
1 1 1 -0.0677578 -0.778196 -0.0537173 0.018763 0 0 0 -10.3315 -15.5242 47.5785
2 1 1 -0.0677578 0.784558 0.0551012 -0.0245958 0 0 0 -20.9699 2.89972 35.5618
3 1 2 0.0225859 -1.13429 -0.140814 -0.982601 0 0 0 -5.49073 -11.9177 -16.0319
4 1 2 0.0225859 -1.12592 -0.96132 0.671741 0 0 0 18.2134 40.6705 -33.993
5 1 2 0.0225859 -1.29132 0.862295 0.391634 0 0 0 18.6591 -10.7556 3.51133
6 1 2 0.0225859 1.13012 -0.83014 -0.532059 0 0 0 13.1662 1.67066 -15.3971
7 1 2 0.0225859 1.26232 0.0463912 0.971488 0 0 0 -15.7731 -3.30972 -3.39896
8 1 2 0.0225859 1.08329 1.0071 -0.4507 0 0 0 2.52644 -3.73372 -17.8307
ITEM: TIMESTEP
90000
ITEM: NUMBER OF ATOMS
8
ITEM: BOX BOUNDS ss ss ss
-1.3423334640466889e+00 1.2290870524652093e+00
-1.0962576201666314e+00 1.0800954798718643e+00
-8.9723211636408684e-01 9.3497645490553050e-01
ITEM: ATOMS id mol type q x y z ix iy iz fx fy fz
1 1 1 -0.0677578 -0.783294 -0.0394565 0.0337137 0 0 0 -28.3318 17.6692 3.19581
2 1 1 -0.0677578 0.800964 0.0384777 -0.0388903 0 0 0 -40.3085 30.3004 -19.9519
3 1 2 0.0225859 -1.31313 0.432721 -0.827519 0 0 0 23.5452 -8.67966 3.73366
4 1 2 0.0225859 -1.03824 -1.09596 0.0284688 0 0 0 -2.22018 -2.97846 -1.23217
5 1 2 0.0225859 -1.342 0.415956 0.934674 0 0 0 43.1717 -13.6269 -22.6781
6 1 2 0.0225859 1.22876 -0.563566 -0.896929 0 0 0 -9.24656 9.21493 26.8901
7 1 2 0.0225859 1.09409 -0.257285 0.921799 0 0 0 22.9004 -25.3349 19.0867
8 1 2 0.0225859 1.15997 1.0798 -0.098812 0 0 0 -9.51018 -6.56451 -9.04417
ITEM: TIMESTEP
95000
ITEM: NUMBER OF ATOMS
8
ITEM: BOX BOUNDS ss ss ss
-1.1783862258551629e+00 1.2336610395762746e+00
-1.0013124056667273e+00 9.5378940161943682e-01
-1.0755864476219770e+00 9.9043150247106648e-01
ITEM: ATOMS id mol type q x y z ix iy iz fx fy fz
1 1 1 -0.0677578 -0.76232 -0.0553469 0.031671 0 0 0 -7.51547 13.3564 -19.5343
2 1 1 -0.0677578 0.775252 0.0541077 -0.0172608 0 0 0 -19.2105 -60.3388 9.42247
3 1 2 0.0225859 -1.15505 -1.00102 -0.349402 0 0 0 7.50509 -10.3089 19.9725
4 1 2 0.0225859 -1.17805 0.274706 0.990129 0 0 0 0.744375 -11.7363 1.06482
5 1 2 0.0225859 -1.15728 0.604122 -0.728197 0 0 0 -0.584256 16.0148 2.17944
6 1 2 0.0225859 1.0152 -0.0287288 -1.07528 0 0 0 17.7337 2.47144 0.361822
7 1 2 0.0225859 1.23333 -0.78781 0.581345 0 0 0 -10.2557 17.8831 -18.6907
8 1 2 0.0225859 1.08777 0.953495 0.409693 0 0 0 11.5829 32.6583 5.22399
ITEM: TIMESTEP
100000
ITEM: NUMBER OF ATOMS
8
ITEM: BOX BOUNDS ss ss ss
-1.1631856421704161e+00 1.3254011856015642e+00
-9.2139134360218855e-01 1.0160714567944762e+00
-9.6924171105550982e-01 9.1248423222395192e-01
ITEM: ATOMS id mol type q x y z ix iy iz fx fy fz
1 1 1 -0.0677578 -0.748748 -0.052614 0.0148055 0 0 0 -25.4338 24.2528 -27.8894
2 1 1 -0.0677578 0.758044 0.0380664 0.00276391 0 0 0 -7.46934 -52.7411 -55.3785
3 1 2 0.0225859 -1.16285 -0.407661 0.912182 0 0 0 -0.30052 -10.299 29.808
4 1 2 0.0225859 -1.08767 1.01578 -0.111453 0 0 0 -8.28477 -26.706 -3.07142
5 1 2 0.0225859 -1.14854 -0.696057 -0.786349 0 0 0 7.66946 8.03324 0.0986595
6 1 2 0.0225859 0.991198 0.420624 -0.968939 0 0 0 10.7633 4.9446 -13.2246
7 1 2 0.0225859 1.32507 -0.921097 0.099523 0 0 0 -15.0865 15.0001 13.7362
8 1 2 0.0225859 0.972037 0.761764 0.645676 0 0 0 38.1422 37.5154 55.921
ITEM: TIMESTEP
105000
ITEM: NUMBER OF ATOMS
8
ITEM: BOX BOUNDS ss ss ss
-1.1986169322778797e+00 1.2027906286092225e+00
-9.5401053934006763e-01 8.3520828340346764e-01
-9.9053912725026128e-01 1.1061991726837934e+00
ITEM: ATOMS id mol type q x y z ix iy iz fx fy fz
1 1 1 -0.0677578 -0.787912 -0.0437727 0.00325104 0 0 0 40.1535 -16.5855 70.2505
2 1 1 -0.0677578 0.780065 0.037988 -0.0173215 0 0 0 -29.1152 30.0755 -32.6854
3 1 2 0.0225859 -1.05846 -0.108541 1.1059 0 0 0 0.624535 13.8787 -31.8301
4 1 2 0.0225859 -1.1529 0.834914 -0.452416 0 0 0 -21.223 16.9424 -9.85524
5 1 2 0.0225859 -1.19829 -0.953716 -0.395752 0 0 0 1.8715 -4.66043 -21.6586
6 1 2 0.0225859 1.1544 0.398801 -0.990236 0 0 0 -6.90869 -14.4942 1.21005
7 1 2 0.0225859 1.20246 -0.872502 0.236927 0 0 0 15.6714 -35.8382 5.52017
8 1 2 0.0225859 1.1463 0.769974 0.663244 0 0 0 -1.07402 10.6819 19.0486
ITEM: TIMESTEP
110000
ITEM: NUMBER OF ATOMS
8
ITEM: BOX BOUNDS ss ss ss
-1.2749289318894119e+00 1.2585630375928933e+00
-1.0260861470898988e+00 9.2427590066748411e-01
-1.1680252682986350e+00 1.0139527629990952e+00
ITEM: ATOMS id mol type q x y z ix iy iz fx fy fz
1 1 1 -0.0677578 -0.79471 -0.0445885 0.0242627 0 0 0 72.1269 20.1096 -2.28243
2 1 1 -0.0677578 0.787762 0.0448699 -0.0289606 0 0 0 -31.757 7.68029 -21.4564
3 1 2 0.0225859 -1.05677 0.272106 1.01365 0 0 0 -20.4714 -4.64873 11.7957
4 1 2 0.0225859 -1.2746 0.545095 -0.731096 0 0 0 -1.82625 17.9974 -4.1716
5 1 2 0.0225859 -1.02364 -1.02579 -0.211346 0 0 0 -17.8352 -39.4845 6.73383
6 1 2 0.0225859 1.06091 -0.00508612 -1.16772 0 0 0 6.55639 7.25546 59.1568
7 1 2 0.0225859 1.25823 -0.713657 0.597652 0 0 0 -4.14805 -18.7711 -18.1033
8 1 2 0.0225859 1.11867 0.923981 0.554842 0 0 0 -2.64538 9.86162 -31.6726
ITEM: TIMESTEP
115000
ITEM: NUMBER OF ATOMS
8
ITEM: BOX BOUNDS ss ss ss
-1.2512742985441581e+00 1.1941207342736790e+00
-9.7930466908245928e-01 9.0175760626421519e-01
-1.1108656735508120e+00 1.1252627137843374e+00
ITEM: ATOMS id mol type q x y z ix iy iz fx fy fz
1 1 1 -0.0677578 -0.759442 -0.0431372 0.0397559 0 0 0 -30.0669 -34.392 0.177301
2 1 1 -0.0677578 0.765185 0.061893 -0.0241143 0 0 0 0.825373 -74.6042 -76.0202
3 1 2 0.0225859 -1.06717 0.0109438 1.12496 0 0 0 -1.96997 -0.13207 -27.8513
4 1 2 0.0225859 -1.25094 0.688333 -0.577755 0 0 0 3.25238 24.4365 7.72676
5 1 2 0.0225859 -1.16597 -0.97901 -0.461257 0 0 0 23.0401 14.3583 26.5808
6 1 2 0.0225859 1.11771 0.00727815 -1.11056 0 0 0 -14.6866 12.8251 33.1012
7 1 2 0.0225859 1.19379 -0.852503 0.413073 0 0 0 -1.24379 11.8234 10.0475
8 1 2 0.0225859 1.10417 0.901463 0.425153 0 0 0 20.8494 45.6849 26.2378
ITEM: TIMESTEP
120000
ITEM: NUMBER OF ATOMS
8
ITEM: BOX BOUNDS ss ss ss
-1.1826327301558488e+00 1.1880680356050688e+00
-9.3012380073411671e-01 8.5947044124515115e-01
-9.2196132247324303e-01 9.3598210280777794e-01
ITEM: ATOMS id mol type q x y z ix iy iz fx fy fz
1 1 1 -0.0677578 -0.767309 -0.0623042 0.0502618 0 0 0 13.5686 -18.8597 -9.87945
2 1 1 -0.0677578 0.770547 0.080459 -0.0497662 0 0 0 -19.9276 -53.4184 23.2315
3 1 2 0.0225859 -1.03576 -0.904504 0.697309 0 0 0 1.98717 8.5936 7.91745
4 1 2 0.0225859 -1.18137 0.859176 0.401347 0 0 0 -11.1524 10.6834 5.9183
5 1 2 0.0225859 -1.1823 -0.32922 -0.921659 0 0 0 0.224693 8.81705 -4.00035
6 1 2 0.0225859 1.04319 0.773539 -0.788675 0 0 0 9.79464 22.8597 -17.1557
7 1 2 0.0225859 1.12992 -0.929829 -0.329909 0 0 0 4.57531 14.2796 -0.93112
8 1 2 0.0225859 1.18774 0.314504 0.935679 0 0 0 0.929643 7.04482 -5.10068
ITEM: TIMESTEP
125000
ITEM: NUMBER OF ATOMS
8
ITEM: BOX BOUNDS ss ss ss
-1.2386810852050156e+00 1.2910977297914699e+00
-8.9896106555338129e-01 9.2514125342738651e-01
-1.0334249019047947e+00 9.8984509813000043e-01
ITEM: ATOMS id mol type q x y z ix iy iz fx fy fz
1 1 1 -0.0677578 -0.754578 -0.0619328 0.0726528 0 0 0 -3.93484 39.4037 24.4621
2 1 1 -0.0677578 0.75448 0.0421809 -0.0684897 0 0 0 20.9785 41.9245 4.40062
3 1 2 0.0225859 -1.13033 -0.529689 0.989542 0 0 0 9.96504 -17.2736 -8.60909
4 1 2 0.0225859 -1.23835 0.924847 0.0734166 0 0 0 11.0896 -0.179878 -2.89688
5 1 2 0.0225859 -1.01185 -0.491685 -0.819169 0 0 0 -33.6474 -36.9887 -28.7596
6 1 2 0.0225859 1.11005 0.641213 0.792937 0 0 0 0.672906 -4.35981 -11.87
7 1 2 0.0225859 0.980884 0.589347 -1.03312 0 0 0 0.847436 -12.2329 24.6957
8 1 2 0.0225859 1.29077 -0.898666 -0.0532155 0 0 0 -5.97116 -10.2934 -1.42285
ITEM: TIMESTEP
130000
ITEM: NUMBER OF ATOMS
8
ITEM: BOX BOUNDS ss ss ss
-1.3042174617199587e+00 1.1846148318536132e+00
-9.2531699763898856e-01 8.1109530157309151e-01
-1.0933455330139212e+00 1.1151951036873977e+00
ITEM: ATOMS id mol type q x y z ix iy iz fx fy fz
1 1 1 -0.0677578 -0.777072 -0.0586815 0.0770936 0 0 0 24.0238 -1.36697 -36.1333
2 1 1 -0.0677578 0.781683 0.0607316 -0.0585651 0 0 0 -40.8308 8.37846 -69.3663
3 1 2 0.0225859 -0.965845 -0.231155 1.11489 0 0 0 -17.6067 -6.26624 12.6185
4 1 2 0.0225859 -1.30389 0.810801 -0.296841 0 0 0 6.11731 15.3541 11.0952
5 1 2 0.0225859 -1.17716 -0.844216 -0.582548 0 0 0 8.64086 -7.5341 14.7901
6 1 2 0.0225859 1.1288 0.750211 0.673632 0 0 0 18.6919 4.03601 15.9216
7 1 2 0.0225859 1.07887 0.414951 -1.09304 0 0 0 -14.129 0.951688 28.5281
8 1 2 0.0225859 1.18428 -0.925022 -0.036882 0 0 0 15.0927 -13.553 22.5461
ITEM: TIMESTEP
135000
ITEM: NUMBER OF ATOMS
8
ITEM: BOX BOUNDS ss ss ss
-1.2944831930213268e+00 1.2452445793173272e+00
-8.9788938378779926e-01 9.0945514091386892e-01
-1.0809737384644535e+00 1.0625524315876211e+00
ITEM: ATOMS id mol type q x y z ix iy iz fx fy fz
1 1 1 -0.0677578 -0.761797 -0.0691742 0.044055 0 0 0 -1.54482 23.6756 71.067
2 1 1 -0.0677578 0.755553 0.0827676 -0.0583026 0 0 0 9.42086 -9.98004 18.7378
3 1 2 0.0225859 -0.989327 -0.601885 1.06225 0 0 0 -2.33595 28.5903 -47.3034
4 1 2 0.0225859 -1.29415 0.90916 -0.0385989 0 0 0 10.6871 -14.6779 3.70282
5 1 2 0.0225859 -1.02887 -0.672658 -0.749358 0 0 0 -22.0559 -26.0448 -28.476
6 1 2 0.0225859 1.24491 0.77664 0.62454 0 0 0 -16.3661 10.5153 2.46373
7 1 2 0.0225859 1.09666 0.324357 -1.08067 0 0 0 -2.07243 -13.9219 5.46172
8 1 2 0.0225859 1.04518 -0.897595 0.351611 0 0 0 24.2672 1.84331 -25.6536
ITEM: TIMESTEP
140000
ITEM: NUMBER OF ATOMS
8
ITEM: BOX BOUNDS ss ss ss
-1.2695245560573158e+00 1.2379381935100977e+00
-1.0271277444954749e+00 1.1098382447386168e+00
-9.4240775000664989e-01 8.5947372692502744e-01
ITEM: ATOMS id mol type q x y z ix iy iz fx fy fz
1 1 1 -0.0677578 -0.75725 -0.0724728 0.0282726 0 0 0 -8.14642 36.1019 9.80845
2 1 1 -0.0677578 0.760236 0.0675567 -0.0315015 0 0 0 -4.00684 -49.4926 -56.3951
3 1 2 0.0225859 -0.985256 0.684237 0.826299 0 0 0 -21.4086 -16.9036 -17.9207
4 1 2 0.0225859 -1.26919 0.142957 -0.942105 0 0 0 13.3803 7.00671 15.9203
5 1 2 0.0225859 -1.09736 -1.02683 0.332083 0 0 0 2.09113 -22.9464 12.147
6 1 2 0.0225859 0.912286 1.10954 -0.195264 0 0 0 23.1777 14.5936 -16.7444
7 1 2 0.0225859 1.16634 -0.645396 -0.84171 0 0 0 -12.5869 38.127 21.8739
8 1 2 0.0225859 1.23761 -0.205929 0.859171 0 0 0 7.49947 -6.48661 31.3106
ITEM: TIMESTEP
145000
ITEM: NUMBER OF ATOMS
8
ITEM: BOX BOUNDS ss ss ss
-1.1832928411206911e+00 1.2213372245319793e+00
-1.0994994033453527e+00 9.7417901259293360e-01
-1.0963637229621701e+00 9.6307939473246762e-01
ITEM: ATOMS id mol type q x y z ix iy iz fx fy fz
1 1 1 -0.0677578 -0.766461 -0.0612683 0.0453239 0 0 0 18.407 -4.94004 -15.2966
2 1 1 -0.0677578 0.762831 0.0463363 -0.0465443 0 0 0 -17.7156 33.37 -36.4568
3 1 2 0.0225859 -1.18296 0.495046 -0.78473 0 0 0 -10.041 -0.109472 -3.61251
4 1 2 0.0225859 -1.03767 -1.0992 0.00975689 0 0 0 -7.49126 -11.0862 -8.25785
5 1 2 0.0225859 -1.13224 0.327961 0.962777 0 0 0 -5.83401 10.6892 18.1387
6 1 2 0.0225859 1.14913 0.119121 -1.09606 0 0 0 -7.25722 -21.6889 17.5037
7 1 2 0.0225859 1.22101 -0.638876 0.573452 0 0 0 23.2376 -37.1364 12.4367
8 1 2 0.0225859 1.026 0.973884 0.349345 0 0 0 6.69443 30.9018 15.5447
ITEM: TIMESTEP
150000
ITEM: NUMBER OF ATOMS
8
ITEM: BOX BOUNDS ss ss ss
-1.2790721286727373e+00 1.2724296242236341e+00
-8.1683779291409198e-01 9.1152133626013310e-01
-8.7178100262105174e-01 9.9234926235146925e-01
ITEM: ATOMS id mol type q x y z ix iy iz fx fy fz
1 1 1 -0.0677578 -0.762206 -0.0810725 0.0560206 0 0 0 -18.0622 20.0444 -30.7064
2 1 1 -0.0677578 0.758459 0.0816161 -0.0631653 0 0 0 31.2351 32.9374 26.3144
3 1 2 0.0225859 -1.10425 -0.579473 -0.871478 0 0 0 -4.607 20.4891 3.86423
4 1 2 0.0225859 -1.04719 -0.760735 0.811187 0 0 0 3.44478 -14.7961 23.8796
5 1 2 0.0225859 -1.27874 0.906898 0.295223 0 0 0 14.8246 -27.5187 -17.879
6 1 2 0.0225859 1.2721 -0.816543 -0.4051 0 0 0 -6.5584 -7.62881 5.95523
7 1 2 0.0225859 1.07049 0.332149 0.992047 0 0 0 4.30895 -7.63649 -26.8378
8 1 2 0.0225859 1.13225 0.911227 -0.736743 0 0 0 -24.5858 -15.8909 15.4097
ITEM: TIMESTEP
155000
ITEM: NUMBER OF ATOMS
8
ITEM: BOX BOUNDS ss ss ss
-1.1787237341396017e+00 1.3619189225499568e+00
-1.1543922356078520e+00 9.0407547284885126e-01
-1.0173248372856956e+00 9.1113698279466637e-01
ITEM: ATOMS id mol type q x y z ix iy iz fx fy fz
1 1 1 -0.0677578 -0.775738 -0.0875387 0.0365822 0 0 0 16.5034 -32.1256 -23.3699
2 1 1 -0.0677578 0.766227 0.0921943 -0.013306 0 0 0 1.63838 -36.4418 -16.4644
3 1 2 0.0225859 -1.17839 0.0520776 -1.01702 0 0 0 4.57764 3.22612 31.8925
4 1 2 0.0225859 -1.02462 -1.1541 0.338375 0 0 0 4.07863 32.6611 2.02227
5 1 2 0.0225859 -1.14234 0.644276 0.724363 0 0 0 -17.0254 6.70678 7.95032
6 1 2 0.0225859 1.10993 -0.779342 -0.618419 0 0 0 9.78065 9.52559 21.6132
7 1 2 0.0225859 1.36159 0.277828 0.910834 0 0 0 -22.4877 -18.2401 -2.10846
8 1 2 0.0225859 0.98717 0.903781 -0.615493 0 0 0 2.93434 34.688 -21.5355
ITEM: TIMESTEP
160000
ITEM: NUMBER OF ATOMS
8
ITEM: BOX BOUNDS ss ss ss
-1.2568312421519814e+00 1.2040196099404341e+00
-1.1772851036642673e+00 1.1440403002502593e+00
-9.5393506985408016e-01 8.8776869170190920e-01
ITEM: ATOMS id mol type q x y z ix iy iz fx fy fz
1 1 1 -0.0677578 -0.772473 -0.0833986 0.0417275 0 0 0 46.5185 -41.5414 -17.5724
2 1 1 -0.0677578 0.776646 0.0863109 -0.0390037 0 0 0 -53.6608 10.9519 7.61074
3 1 2 0.0225859 -1.2565 0.335092 -0.786836 0 0 0 -9.71379 14.742 -26.6361
4 1 2 0.0225859 -0.980523 -1.17699 0.029588 0 0 0 -5.32767 15.9786 10.3167
5 1 2 0.0225859 -1.11354 0.414316 0.887466 0 0 0 -17.7406 6.63603 34.9342
6 1 2 0.0225859 1.12063 -0.293487 -0.953632 0 0 0 13.2075 -11.0074 -25.3259
7 1 2 0.0225859 1.20369 -0.45738 0.772615 0 0 0 14.9025 -3.72467 13.5298
8 1 2 0.0225859 0.976528 1.14375 0.0183395 0 0 0 11.8144 7.96489 3.1429
ITEM: TIMESTEP
165000
ITEM: NUMBER OF ATOMS
8
ITEM: BOX BOUNDS ss ss ss
-1.2676638270475205e+00 1.2861413826573234e+00
-9.4501725935873460e-01 8.4810204943313017e-01
-9.5960280428454015e-01 1.0380357569309768e+00
ITEM: ATOMS id mol type q x y z ix iy iz fx fy fz
1 1 1 -0.0677578 -0.775062 -0.100498 0.0296265 0 0 0 32.5375 10.9372 31.3339
2 1 1 -0.0677578 0.766252 0.0873871 -0.0306351 0 0 0 14.896 5.81788 -60.4761
3 1 2 0.0225859 -1.0269 -0.685794 -0.85283 0 0 0 -17.9939 -9.00622 8.44979
4 1 2 0.0225859 -1.04546 -0.484164 1.03773 0 0 0 1.2943 -19.9211 -23.2078
5 1 2 0.0225859 -1.26733 0.847807 0.0364166 0 0 0 -4.52093 15.8596 -16.4144
6 1 2 0.0225859 1.28581 -0.944723 -0.0439896 0 0 0 -16.4934 42.0152 -6.59664
7 1 2 0.0225859 1.13674 0.644264 0.793986 0 0 0 0.718539 4.89219 23.2862
8 1 2 0.0225859 1.02213 0.778839 -0.9593 0 0 0 -10.4381 -50.5947 43.6251
ITEM: TIMESTEP
170000
ITEM: NUMBER OF ATOMS
8
ITEM: BOX BOUNDS ss ss ss
-1.2529173340081756e+00 1.1582983293496787e+00
-9.2157812551785789e-01 9.5933768668636710e-01
-9.1535699837639728e-01 9.1644560342466652e-01
ITEM: ATOMS id mol type q x y z ix iy iz fx fy fz
1 1 1 -0.0677578 -0.764507 -0.100145 0.0305213 0 0 0 -8.82078 27.0157 29.3181
2 1 1 -0.0677578 0.768748 0.111207 -0.0238441 0 0 0 -33.9342 -35.2607 -66.3276
3 1 2 0.0225859 -1.20274 -0.358842 -0.915054 0 0 0 2.77588 -2.98188 -14.6739